[Molden Format]
made by pyscf v[1.6.1-1]
[Atoms] (AU)
H   1   1     0.00000000000000     0.00000000000000     7.55890449826025
H   2   1     0.00000000000000     0.00000000000000    15.11780899652049
H   3   1     0.00000000000000     0.00000000000000    22.67671349478074
H   4   1     0.00000000000000     0.00000000000000    30.23561799304099
H   5   1     0.00000000000000     0.00000000000000    37.79452249130124
H   6   1     0.00000000000000     0.00000000000000    45.35342698956148
[GTO]
1 0
 s    3 1.00
            3.42525091    0.15432897070298
            0.62391373    0.53532814243847
             0.1688554    0.44463454202535

2 0
 s    3 1.00
            3.42525091    0.15432897070298
            0.62391373    0.53532814243847
             0.1688554    0.44463454202535

3 0
 s    3 1.00
            3.42525091    0.15432897070298
            0.62391373    0.53532814243847
             0.1688554    0.44463454202535

4 0
 s    3 1.00
            3.42525091    0.15432897070298
            0.62391373    0.53532814243847
             0.1688554    0.44463454202535

5 0
 s    3 1.00
            3.42525091    0.15432897070298
            0.62391373    0.53532814243847
             0.1688554    0.44463454202535

6 0
 s    3 1.00
            3.42525091    0.15432897070298
            0.62391373    0.53532814243847
             0.1688554    0.44463454202535

[5d]
[9g]


[MO]
 Sym= A
 Ene=               0
 Spin= Alpha
 Occup=    1.00000
   1      0.34355457529113
   2      0.35822045328064
   3      0.50212558085548
   4      0.50212552876389
   5      0.35821967666493
   6      0.34355390190343
 Sym= A
 Ene=               1
 Spin= Alpha
 Occup=    1.00000
   1     -0.49922446174598
   2     -0.49964405413851
   3    -0.014851557359766
   4     0.014851264626924
   5      0.49964525225029
   6      0.49922574818637
 Sym= A
 Ene=               2
 Spin= Alpha
 Occup=    1.00000
   1     -0.36309018367838
   2     -0.34806991216808
   3      0.49673077652477
   4      0.49673084917608
   5     -0.34806887734941
   6     -0.36308916192165
 Sym= A
 Ene=               3
 Spin= Alpha
 Occup=    0.00000
   1      0.36200946421055
   2     -0.34601108088269
   3     -0.49949888372815
   4      0.49949893029619
   5      0.34601049935326
   6     -0.36200877480882
 Sym= A
 Ene=               4
 Spin= Alpha
 Occup=    0.00000
   1     -0.50013738617983
   2       0.5005283525848
   3    -0.015699573812883
   4    -0.015699881514466
   5      0.50052951214405
   6     -0.50013845848746
 Sym= A
 Ene=               5
 Spin= Alpha
 Occup=    0.00000
   1      0.34601385130205
   2     -0.36143495856148
   3      0.50116716107535
   4      -0.5011670938809
   5      0.36143401947123
   6     -0.34601290734774
