[Molden Format]
made by pyscf v[1.6.1-1]
[Atoms] (AU)
H   1   1     0.00000000000000     0.00000000000000     9.44863062282531
H   2   1     0.00000000000000     0.00000000000000    18.89726124565062
H   3   1     0.00000000000000     0.00000000000000    28.34589186847593
H   4   1     0.00000000000000     0.00000000000000    37.79452249130124
H   5   1     0.00000000000000     0.00000000000000    47.24315311412654
H   6   1     0.00000000000000     0.00000000000000    56.69178373695186
[GTO]
1 0
 s    3 1.00
            3.42525091    0.15432897070298
            0.62391373    0.53532814243847
             0.1688554    0.44463454202535

2 0
 s    3 1.00
            3.42525091    0.15432897070298
            0.62391373    0.53532814243847
             0.1688554    0.44463454202535

3 0
 s    3 1.00
            3.42525091    0.15432897070298
            0.62391373    0.53532814243847
             0.1688554    0.44463454202535

4 0
 s    3 1.00
            3.42525091    0.15432897070298
            0.62391373    0.53532814243847
             0.1688554    0.44463454202535

5 0
 s    3 1.00
            3.42525091    0.15432897070298
            0.62391373    0.53532814243847
             0.1688554    0.44463454202535

6 0
 s    3 1.00
            3.42525091    0.15432897070298
            0.62391373    0.53532814243847
             0.1688554    0.44463454202535

[5d]
[9g]


[MO]
 Sym= A
 Ene=               0
 Spin= Alpha
 Occup=    1.00000
   1      0.10070178405748
   2    7.5434649916864e-05
   3    1.2106400369568e-08
   4    1.809069360959e-07
   5    0.00043774317723968
   6      0.99491650796081
 Sym= A
 Ene=               1
 Spin= Alpha
 Occup=    1.00000
   1      0.99491651110425
   2    0.0004319636933373
   3    1.8227871119985e-07
   4    -2.4684039569407e-08
   5    -1.2408974238122e-05
   6     -0.10070181840067
 Sym= A
 Ene=               2
 Spin= Alpha
 Occup=    1.00000
   1    -0.00040795306489972
   2      0.70710559942403
   3    0.00030996488711755
   4    0.00030997802641438
   5      0.70710761308021
   6    -0.00040740208013077
 Sym= A
 Ene=               3
 Spin= Alpha
 Occup=    0.00000
   1    -0.00036307320371635
   2      0.70710761888619
   3    0.00033410191636701
   4    -0.00033414197677299
   5     -0.70710560556117
   6    0.00036278020666146
 Sym= A
 Ene=               4
 Spin= Alpha
 Occup=    0.00000
   1    6.2432238771599e-08
   2    -0.00038620217534121
   3      0.70704918509866
   4      0.70708800540536
   5    -0.00038626564813055
   6    6.2262048234079e-08
 Sym= A
 Ene=               5
 Spin= Alpha
 Occup=    0.00000
   1    4.619681973375e-08
   2    -0.00041036240478817
   3      0.70716424217088
   4     -0.70712542602479
   5    0.00041035338876352
   6    -4.6153163177377e-08
