[Molden Format]
made by pyscf v[1.6]
[Atoms] (AU)
Sc   1   21     0.00000000000000     0.00000000000000     0.00000000000000
[GTO]
1 0
 s   19 1.00
               2715278  8.1472185504374e-06
              406598.4  6.3347860953678e-05
              92530.04  0.00033303829986789
              26207.92  0.0014040545778535
              8549.429  0.0050817234721166
              3085.975   0.016269255108446
              1203.172   0.046245756095638
              498.4869    0.11372226580799
               216.736    0.22576353212139
              97.87476    0.31066990659323
              45.20433    0.21919053409764
              20.21187   0.072158768304569
              9.574751    0.11870296431048
              4.540346     0.1220531633032
              1.995687   0.021367943575462
              0.942215  -0.00053572443892779
              0.417845  0.00024357732676545
              0.095761  -8.7966143551885e-05
              0.051351  7.8782436313081e-05
 s   19 1.00
               2715278  -4.722074290438e-06
              406598.4  -3.6718020104543e-05
              92530.04  -0.00019308688071672
              26207.92  -0.00081468101169499
              8549.429  -0.002955504275594
              3085.975  -0.0095199650235879
              1203.172  -0.027468378093949
              498.4869  -0.069914766092179
               216.736   -0.14992399798508
              97.87476   -0.24591349241522
              45.20433   -0.24012753494484
              20.21187   0.035679607737384
              9.574751    0.49149868724359
              4.540346    0.49113448992062
              1.995687   0.091205659593669
              0.942215  -0.0053566836257481
              0.417845  0.00088127712218092
              0.095761  -0.00076054800959911
              0.051351  0.00063400693973804
 s   19 1.00
               2715278  9.1503196323878e-07
              406598.4  7.1166129255155e-06
              92530.04  3.7423854762319e-05
              26207.92  0.0001580627024522
              8549.429  0.0005744223911548
              3085.975  0.0018613625496763
              1203.172  0.0054393729388802
              498.4869   0.014270111833603
               216.736   0.032498428783185
              97.87476     0.0601029474577
              45.20433    0.06923985682691
              20.21187    -0.0211549179232
              9.574751   -0.26698707706349
              4.540346   -0.43725677316712
              1.995687    0.06505647542171
              0.942215    0.70175862161441
              0.417845    0.45207073399411
              0.095761   0.030153419760911
              0.051351  -0.013309949003701
 s   19 1.00
               2715278  -3.0131684382745e-07
              406598.4  -2.3419202859025e-06
              92530.04  -1.2327265442317e-05
              26207.92  -5.1999481486817e-05
              8549.429  -0.00018928195674514
              3085.975  -0.00061218381049175
              1203.172  -0.0017935606893752
              498.4869  -0.0046934495362069
               216.736  -0.010738693712833
              97.87476  -0.019803457111526
              45.20433  -0.023135258097792
              20.21187  0.0073840895675243
              9.574751   0.091287378639091
              4.540346    0.16124723521329
              1.995687  -0.037468858065263
              0.942215   -0.30928070754516
              0.417845   -0.42058568554004
              0.095761    0.34813050872004
              0.051351    0.81852585269602
 s   19 1.00
               2715278  -3.618876970336e-07
              406598.4  -2.8720976871797e-06
              92530.04  -1.4665164705446e-05
              26207.92  -6.4385211209211e-05
              8549.429  -0.00022279475688035
              3085.975  -0.00076666104112157
              1203.172  -0.0020823463601892
              498.4869  -0.0059779049244244
               216.736  -0.012154350997333
              97.87476  -0.026385778825509
              45.20433  -0.022504733379204
              20.21187  -0.0055234482307926
              9.574751    0.14794605767216
              4.540346    0.13938102573681
              1.995687   0.090150262401202
              0.942215   -0.83678026309478
              0.417845   0.020367265488216
              0.095761     2.1917023377932
              0.051351    -1.1469196601245
 s    1 1.00
              0.023878                   1
 p   15 1.00
              10592.19  4.5000049833184e-05
              2507.533  0.00040100044406904
              814.4571  0.0023020025492442
              311.5195   0.010037011115015
              131.9617   0.034954038708203
              59.98718   0.097909108424827
               28.6625    0.21068023330789
              14.10851    0.33009336554634
              7.103706    0.33102736658065
                3.6092    0.15796017492555
               1.77607   0.022099024472523
               0.85476  -0.0016050017773836
              0.402239  -0.0013260014684178
              0.154665  -0.00028000031007315
              0.064945  3.4000037651739e-05
 p   15 1.00
              10592.19  -1.5002927241429e-05
              2507.533  -0.00013102556457515
              814.4571  -0.00075714772811747
              311.5195  -0.0033186475058042
              131.9617  -0.011708284419211
              59.98718  -0.033610557801399
               28.6625  -0.074893612594066
              14.10851   -0.12257191517218
              7.103706   -0.13030142328696
                3.6092    0.01459884840106
               1.77607    0.30924433708094
               0.85476    0.46308835379515
              0.402239     0.3050165121843
              0.154665    0.05088792881263
              0.064945  -0.0044938768063828
 p   15 1.00
              10592.19  -5.2632973310669e-06
              2507.533  -4.2106378648535e-05
              814.4571  -0.00024342750156184
              311.5195  -0.0010631860608755
              131.9617  -0.0037764158350405
              59.98718  -0.010798970299016
               28.6625    -0.0243072228992
              14.10851  -0.039607628240611
              7.103706  -0.043347200994334
                3.6092   0.010471330040158
               1.77607    0.11578333051314
               0.85476    0.20050136435399
              0.402239    0.12785865041494
              0.154665   -0.33808527241242
              0.064945   -0.77346128016527
 p   15 1.00
              10592.19  4.2433180507861e-06
              2507.533  4.1372350995164e-05
              814.4571  0.00023444332230593
              311.5195  0.0010438562404934
              131.9617  0.0036312194219602
              59.98718   0.010600869320376
               28.6625   0.023249139600257
              14.10851   0.039259178605873
              7.103706   0.040092990602852
                3.6092  -0.004645372436098
               1.77607    -0.1168652224367
               0.85476   -0.17081158564585
              0.402239   -0.19358229113589
              0.154665    0.41225001775851
              0.064945    0.73313927622456
 p    1 1.00
              0.026359                   1
 d    7 1.00
               50.5138  0.0043444377423478
               14.7405   0.028217459204166
                 5.195    0.10183969026548
               2.02846    0.23583901472355
              0.804086    0.35239541146222
              0.307689    0.38023912274059
              0.111392    0.26914738913493
 d    7 1.00
               50.5138  -0.0057379457855212
               14.7405  -0.037080281684834
                 5.195   -0.13745053680846
               2.02846   -0.30703566177097
              0.804086   -0.42437658771753
              0.307689  -0.084048028390379
              0.111392    0.78669472282789
 d    1 1.00
              0.037352                   1
 f    2 1.00
                0.7126    0.36174498584461
                0.1636    0.82186796783961

[5d]
[9g]


[MO]
 Sym= A
 Ene=               0
 Spin= Alpha
 Occup=    1.00000
   1    0.0055696924959671
   2     0.014067140178943
   3     0.081896210183994
   4      0.91498019555938
   5      0.10920464012948
   6     0.010872714541299
   7    4.6227585176118e-17
   8    4.8415454261068e-17
   9    8.735681637196e-17
  10    1.2956973128657e-15
  11    -1.7113447773737e-16
  12    -5.1583964426743e-16
  13    -2.7608140311763e-16
  14    -1.2686388439027e-15
  15    9.1493153912906e-16
  16    -3.7822627209637e-16
  17    -1.0107303834263e-15
  18    9.0623006901503e-16
  19    -1.9467836057884e-17
  20    -9.210729200952e-17
  21    -8.0540570986486e-18
  22    0.0011115172141688
  23    0.0039249656668007
  24    -0.010506753207854
  25    -0.0053055185739885
  26    -0.0046068100833499
  27    0.0010460839501198
  28    0.0036939091335673
  29    -0.0098882372318821
  30    -0.0049931910701264
  31    -0.0043356144456024
  32    0.00013745152884295
  33    0.00048536588076806
  34    -0.0012992774861884
  35    -0.00065608668052485
  36    -0.00056968356501683
  37    5.7544231457548e-17
  38    2.4114252941316e-16
  39    -1.8179413225939e-18
  40    1.0642598986726e-16
  41    7.9977253056572e-17
  42    -1.2458996049926e-16
  43    5.8105072275788e-17
 Sym= A
 Ene=               1
 Spin= Alpha
 Occup=    1.00000
   1    2.5039242187805e-15
   2    6.7089675348963e-15
   3    8.2765906432778e-14
   4    4.0649760455619e-13
   5    5.988830360856e-14
   6    1.2045038583373e-14
   7    1.7236866308217e-17
   8    4.6302420798314e-18
   9    -7.0952366561731e-17
  10    -1.0119380122712e-15
  11     1.33006655794e-15
  12    -3.0104556024272e-16
  13    9.2370420365793e-15
  14    -2.9929204020878e-15
  15    -7.6099228015867e-15
  16    4.2194769035276e-15
  17    -5.4556304803771e-16
  18    -7.664388698756e-15
  19    9.0644216456036e-15
  20    -1.4795624511041e-14
  21    -2.042419980171e-15
  22     -0.46122888489978
  23     -0.16005983787467
  24      -0.5135479073062
  25      0.62973121757512
  26      0.19835357251368
  27     0.054690245351765
  28     0.018979105799571
  29     0.060893976873473
  30    -0.074670420527389
  31    -0.023519787902117
  32    0.0019019170750978
  33    0.00066002054219992
  34    0.0021176590750399
  35    -0.0025967509725297
  36    -0.00081792805875545
  37    -2.5895791918699e-17
  38    -8.8188888506944e-17
  39    5.8110416476812e-17
  40    -5.8393716386154e-17
  41    -1.2941582314546e-16
  42    1.1189196539227e-16
  43    1.0634283758713e-16
 Sym= A
 Ene=               2
 Spin= Alpha
 Occup=    1.00000
   1    -0.00068727531362516
   2    -0.001705141551768
   3    -0.0042610892404248
   4    -0.012089642937583
   5    -0.0061452114327606
   6     0.037704321547125
   7    -1.5682263809751e-16
   8    9.0163700984662e-17
   9    -1.7866705473461e-17
  10    -8.3500520627714e-16
  11    -4.7135193969606e-16
  12    -9.3898665834915e-17
  13    -3.7549567303179e-16
  14    -6.2403282267261e-16
  15    2.7573852672632e-16
  16    3.3029074984133e-15
  17    5.3060116384805e-16
  18    1.4184743372689e-15
  19    9.7916856612736e-15
  20    4.5622285040054e-15
  21    2.4368465036127e-16
  22    -0.072107022123037
  23     -0.25462276482053
  24      0.68160049750593
  25      0.34418283438569
  26      0.29885579136306
  27    -0.010789238907278
  28    -0.038098728251352
  29      0.10198660810537
  30     0.051499434016764
  31      0.04471723331379
  32    -0.027613573775714
  33    -0.097508457489101
  34      0.26102070324488
  35      0.13180572168718
  36       0.1144476113439
  37     2.20895296038e-16
  38    1.6522347054627e-15
  39    7.1378257734808e-16
  40    -1.1686738358423e-15
  41    -2.3598817024566e-16
  42    1.5012184023563e-15
  43    -5.6597299917322e-16
 Sym= A
 Ene=               3
 Spin= Alpha
 Occup=    1.00000
   1    5.4113022697256e-14
   2    1.3670860479916e-13
   3    7.1916236619115e-13
   4    1.7830210438292e-12
   5    -8.3188126430444e-14
   6    -2.0796555450415e-12
   7    1.2337457346757e-15
   8    -2.8979034552206e-15
   9    -3.7599820110593e-15
  10    2.4204546241275e-14
  11    -5.4490779278138e-14
  12    -7.1486756867224e-14
  13    -6.6442168245546e-14
  14    2.5664491135057e-13
  15    3.2764976011487e-13
  16    -1.3660735475928e-13
  17    2.3543432359669e-13
  18    3.1925570317425e-13
  19    -2.4480709032836e-13
  20    5.1806436308735e-13
  21    6.8602500690328e-13
  22       0.6829943957438
  23      0.20144049262098
  24      -0.1162031917418
  25      0.41935717077866
  26      0.11848069152266
  27      0.10566143472369
  28     0.031163493572444
  29    -0.017977008355311
  30     0.064875906160093
  31     0.018329344913157
  32      0.29004394192164
  33     0.085544764212721
  34    -0.049347450003535
  35      0.17808639081634
  36     0.050314624870863
  37    8.8371657811724e-15
  38    -2.5335291445248e-14
  39    -1.7225956536792e-15
  40    -3.8376695149685e-14
  41    2.2201227580483e-14
  42    3.339930129265e-14
  43    3.6252041658311e-14
 Sym= A
 Ene=               4
 Spin= Alpha
 Occup=    1.00000
   1    -9.2168733436508e-16
   2    -2.3283778701679e-15
   3    -1.2331194844336e-14
   4    -2.9126376922219e-14
   5    8.9422807318963e-16
   6    3.6324367575504e-14
   7    -3.4424678994483e-18
   8    -4.4479878890441e-17
   9    3.6212447085831e-17
  10    6.4312446401537e-17
  11    -4.8470938085675e-16
  12    5.7914128097629e-16
  13    -3.1946294045906e-15
  14    2.6786067500496e-14
  15    1.7327993914419e-14
  16    -1.1112233181596e-14
  17    1.6636685051609e-14
  18    3.3065710798716e-14
  19    -4.6901205498889e-15
  20    -3.8917481768456e-15
  21    -6.4055298609377e-15
  22      0.20040652129465
  23      -0.4542055071985
  24     -0.22585295839443
  25     -0.32708697695856
  26      0.55317270679632
  27     0.031003534875162
  28    -0.070267056141421
  29    -0.034940180723676
  30    -0.050601409733754
  31     0.085577600950074
  32      0.08510567258736
  33     -0.19288526607465
  34    -0.095911888524509
  35     -0.13890245182042
  36      0.23491319027313
  37    5.417139605694e-16
  38    1.5903707153343e-15
  39    3.1100271661348e-16
  40    -1.2093231079612e-15
  41    -6.5073280981142e-16
  42    8.7002929385993e-16
  43    -8.6418944730352e-17
 Sym= A
 Ene=               5
 Spin= Alpha
 Occup=    1.00000
   1    1.2650893615517e-14
   2    3.1959729076913e-14
   3    1.6824234990317e-13
   4    4.1505897551751e-13
   5    -1.8221180005459e-14
   6    -4.8787174730601e-13
   7    1.6525660668456e-16
   8    -3.655700162653e-16
   9    -4.7653503064148e-16
  10    3.3949834280413e-15
  11    -7.4783873788425e-15
  12    -9.982581053499e-15
  13    -1.686360235973e-14
  14    4.4966436827911e-14
  15    5.4492056229043e-14
  16    -2.1074161097624e-14
  17    2.0852073351207e-14
  18    2.8674305629513e-14
  19    -3.3759616956737e-14
  20    6.5598795761813e-14
  21    9.1175817718413e-14
  22     -0.17841491026752
  23      0.56793930162254
  24      0.03663898539623
  25      -0.1082392193894
  26      0.48192553785793
  27    -0.030146033185181
  28     0.095962366644181
  29    0.0061907385877645
  30    -0.018288735480451
  31     0.081428974939752
  32     -0.10333343071048
  33      0.32893616561517
  34     0.021220379244465
  35    -0.062689434757202
  36      0.27911915601209
  37    7.7775811833446e-16
  38    -4.5869971816046e-15
  39    9.0740218161481e-17
  40    -5.6471733128368e-15
  41    3.7572498634648e-15
  42    4.7667524044201e-15
  43    6.1490924358533e-15
