[Molden Format]
made by pyscf v[1.6]
[Atoms] (AU)
Sc   1   21     0.00000000000000     0.00000000000000     0.00000000000000
[GTO]
1 0
 s   19 1.00
               2715278  8.1472185504374e-06
              406598.4  6.3347860953678e-05
              92530.04  0.00033303829986789
              26207.92  0.0014040545778535
              8549.429  0.0050817234721166
              3085.975   0.016269255108446
              1203.172   0.046245756095638
              498.4869    0.11372226580799
               216.736    0.22576353212139
              97.87476    0.31066990659323
              45.20433    0.21919053409764
              20.21187   0.072158768304569
              9.574751    0.11870296431048
              4.540346     0.1220531633032
              1.995687   0.021367943575462
              0.942215  -0.00053572443892779
              0.417845  0.00024357732676545
              0.095761  -8.7966143551885e-05
              0.051351  7.8782436313081e-05
 s   19 1.00
               2715278  -4.722074290438e-06
              406598.4  -3.6718020104543e-05
              92530.04  -0.00019308688071672
              26207.92  -0.00081468101169499
              8549.429  -0.002955504275594
              3085.975  -0.0095199650235879
              1203.172  -0.027468378093949
              498.4869  -0.069914766092179
               216.736   -0.14992399798508
              97.87476   -0.24591349241522
              45.20433   -0.24012753494484
              20.21187   0.035679607737384
              9.574751    0.49149868724359
              4.540346    0.49113448992062
              1.995687   0.091205659593669
              0.942215  -0.0053566836257481
              0.417845  0.00088127712218092
              0.095761  -0.00076054800959911
              0.051351  0.00063400693973804
 s   19 1.00
               2715278  9.1503196323878e-07
              406598.4  7.1166129255155e-06
              92530.04  3.7423854762319e-05
              26207.92  0.0001580627024522
              8549.429  0.0005744223911548
              3085.975  0.0018613625496763
              1203.172  0.0054393729388802
              498.4869   0.014270111833603
               216.736   0.032498428783185
              97.87476     0.0601029474577
              45.20433    0.06923985682691
              20.21187    -0.0211549179232
              9.574751   -0.26698707706349
              4.540346   -0.43725677316712
              1.995687    0.06505647542171
              0.942215    0.70175862161441
              0.417845    0.45207073399411
              0.095761   0.030153419760911
              0.051351  -0.013309949003701
 s   19 1.00
               2715278  -3.0131684382745e-07
              406598.4  -2.3419202859025e-06
              92530.04  -1.2327265442317e-05
              26207.92  -5.1999481486817e-05
              8549.429  -0.00018928195674514
              3085.975  -0.00061218381049175
              1203.172  -0.0017935606893752
              498.4869  -0.0046934495362069
               216.736  -0.010738693712833
              97.87476  -0.019803457111526
              45.20433  -0.023135258097792
              20.21187  0.0073840895675243
              9.574751   0.091287378639091
              4.540346    0.16124723521329
              1.995687  -0.037468858065263
              0.942215   -0.30928070754516
              0.417845   -0.42058568554004
              0.095761    0.34813050872004
              0.051351    0.81852585269602
 s   19 1.00
               2715278  -3.618876970336e-07
              406598.4  -2.8720976871797e-06
              92530.04  -1.4665164705446e-05
              26207.92  -6.4385211209211e-05
              8549.429  -0.00022279475688035
              3085.975  -0.00076666104112157
              1203.172  -0.0020823463601892
              498.4869  -0.0059779049244244
               216.736  -0.012154350997333
              97.87476  -0.026385778825509
              45.20433  -0.022504733379204
              20.21187  -0.0055234482307926
              9.574751    0.14794605767216
              4.540346    0.13938102573681
              1.995687   0.090150262401202
              0.942215   -0.83678026309478
              0.417845   0.020367265488216
              0.095761     2.1917023377932
              0.051351    -1.1469196601245
 s    1 1.00
              0.023878                   1
 p   15 1.00
              10592.19  4.5000049833184e-05
              2507.533  0.00040100044406904
              814.4571  0.0023020025492442
              311.5195   0.010037011115015
              131.9617   0.034954038708203
              59.98718   0.097909108424827
               28.6625    0.21068023330789
              14.10851    0.33009336554634
              7.103706    0.33102736658065
                3.6092    0.15796017492555
               1.77607   0.022099024472523
               0.85476  -0.0016050017773836
              0.402239  -0.0013260014684178
              0.154665  -0.00028000031007315
              0.064945  3.4000037651739e-05
 p   15 1.00
              10592.19  -1.5002927241429e-05
              2507.533  -0.00013102556457515
              814.4571  -0.00075714772811747
              311.5195  -0.0033186475058042
              131.9617  -0.011708284419211
              59.98718  -0.033610557801399
               28.6625  -0.074893612594066
              14.10851   -0.12257191517218
              7.103706   -0.13030142328696
                3.6092    0.01459884840106
               1.77607    0.30924433708094
               0.85476    0.46308835379515
              0.402239     0.3050165121843
              0.154665    0.05088792881263
              0.064945  -0.0044938768063828
 p   15 1.00
              10592.19  -5.2632973310669e-06
              2507.533  -4.2106378648535e-05
              814.4571  -0.00024342750156184
              311.5195  -0.0010631860608755
              131.9617  -0.0037764158350405
              59.98718  -0.010798970299016
               28.6625    -0.0243072228992
              14.10851  -0.039607628240611
              7.103706  -0.043347200994334
                3.6092   0.010471330040158
               1.77607    0.11578333051314
               0.85476    0.20050136435399
              0.402239    0.12785865041494
              0.154665   -0.33808527241242
              0.064945   -0.77346128016527
 p   15 1.00
              10592.19  4.2433180507861e-06
              2507.533  4.1372350995164e-05
              814.4571  0.00023444332230593
              311.5195  0.0010438562404934
              131.9617  0.0036312194219602
              59.98718   0.010600869320376
               28.6625   0.023249139600257
              14.10851   0.039259178605873
              7.103706   0.040092990602852
                3.6092  -0.004645372436098
               1.77607    -0.1168652224367
               0.85476   -0.17081158564585
              0.402239   -0.19358229113589
              0.154665    0.41225001775851
              0.064945    0.73313927622456
 p    1 1.00
              0.026359                   1
 d    7 1.00
               50.5138  0.0043444377423478
               14.7405   0.028217459204166
                 5.195    0.10183969026548
               2.02846    0.23583901472355
              0.804086    0.35239541146222
              0.307689    0.38023912274059
              0.111392    0.26914738913493
 d    7 1.00
               50.5138  -0.0057379457855212
               14.7405  -0.037080281684834
                 5.195   -0.13745053680846
               2.02846   -0.30703566177097
              0.804086   -0.42437658771753
              0.307689  -0.084048028390379
              0.111392    0.78669472282789
 d    1 1.00
              0.037352                   1
 f    2 1.00
                0.7126    0.36174498584461
                0.1636    0.82186796783961

[5d]
[9g]


[MO]
 Sym= A
 Ene=               0
 Spin= Alpha
 Occup=    1.00000
   1      0.97135767826337
   2     -0.23762449509317
   3    -0.00046450329268688
   4    -2.7494189185684e-06
   5    3.1761637081791e-06
   6    2.1622990511842e-05
   7    2.814678964798e-19
   8    3.2936951418754e-19
   9    4.264860005368e-20
  10    -4.0402168688847e-20
  11    -8.5773089871522e-20
  12    -2.1191917958433e-20
  13    -1.7934301796504e-18
  14    -3.6464760686601e-18
  15    -7.5914684011096e-19
  16    -1.7538353571357e-18
  17    -3.5556891415442e-18
  18    -7.4058847478602e-19
  19    -4.2542593794977e-20
  20    -8.9075657719793e-20
  21    -2.0132387970297e-20
  22    9.9869114746525e-09
  23    3.5265566882386e-08
  24    -9.4402509329175e-08
  25    -4.7669746947161e-08
  26    -4.1391895598658e-08
  27    -4.2604330964064e-08
  28    -1.504434966784e-07
  29    4.0272267978213e-07
  30    2.0335993577934e-07
  31    1.7657851719159e-07
  32    1.5821101353174e-08
  33    5.5867132637502e-08
  34    -1.4955090691375e-07
  35    -7.5517631244794e-08
  36    -6.5572362107256e-08
  37    -9.4854571059411e-22
  38    3.366657304597e-21
  39    -6.4400431098949e-21
  40    -9.8857210893031e-22
  41    3.2529492692109e-21
  42    -1.4396555863198e-21
  43    2.4961369315286e-21
 Sym= A
 Ene=               1
 Spin= Alpha
 Occup=    1.00000
   1      0.23762308557145
   2      0.97135991770004
   3    0.0033707085425139
   4    -4.5237717940576e-06
   5    -5.4158916446936e-06
   6    -0.00016125261314403
   7    8.6075112941514e-17
   8    6.456723696441e-17
   9    -7.1765278606815e-18
  10    2.6388596808054e-18
  11    5.337094865439e-19
  12    -5.967214562459e-19
  13    1.1714497542871e-16
  14    6.5308307214249e-17
  15    -1.4773771454398e-17
  16    1.1445459241206e-16
  17    6.3782746147743e-17
  18    -1.4631062836702e-17
  19    2.8052852736705e-18
  20    1.5335898113309e-18
  21    -2.5745180896303e-19
  22    8.1665136956557e-06
  23    2.8837417421923e-05
  24    -7.7194975379196e-05
  25    -3.8980583969956e-05
  26    -3.3847049027879e-05
  27    -2.0718150840907e-05
  28    -7.3159488405724e-05
  29    0.00019584086964703
  30    9.8892336274499e-05
  31    8.5868743191962e-05
  32    6.9445589733811e-06
  33    2.4522477203618e-05
  34    -6.5644298041353e-05
  35    -3.3147922637923e-05
  36    -2.8782518075447e-05
  37    9.2591721812926e-20
  38    -1.5843617425238e-19
  39    -2.4364857137384e-19
  40    1.1435182841243e-19
  41    4.9779919534701e-20
  42    -2.000814400957e-21
  43    1.1739105851077e-19
 Sym= A
 Ene=               2
 Spin= Alpha
 Occup=    1.00000
   1    4.8110226651565e-17
   2    1.1130779423946e-16
   3    7.4948262347333e-16
   4    1.9525710560476e-15
   5    -9.8067193256369e-16
   6    -1.3918459400171e-15
   7     -0.27350702928628
   8       0.7321518457459
   9     -0.62378756785027
  10    -0.0013276433041294
  11    0.0035539726278595
  12    -0.0030279565019465
  13    -0.0010231240839973
  14    0.0027388041487497
  15    -0.002333439420761
  16    -0.00099846998967704
  17     0.002672807524426
  18    -0.0022772108200773
  19    -2.3369563141431e-05
  20    6.2558058682627e-05
  21    -5.3298970020065e-05
  22    1.607963791307e-18
  23    -1.052817076496e-17
  24    -7.5502813207687e-19
  25    2.7078560677198e-17
  26    2.1217595375664e-18
  27    2.0163140172387e-18
  28    5.2002280570558e-17
  29    8.1668837816027e-17
  30    1.9008088127064e-17
  31    1.3205401140104e-17
  32    1.5520622183742e-17
  33    5.2537343887549e-17
  34    -2.1802519226494e-16
  35    -1.10167575699e-16
  36    -3.6850237271876e-17
  37    7.0984750377724e-06
  38    -3.418748433845e-06
  39    9.1516586703185e-06
  40    1.2027048994498e-05
  41    1.0443150808059e-05
  42    7.1568926158097e-06
  43    -3.8936530425519e-06
 Sym= A
 Ene=               3
 Spin= Alpha
 Occup=    1.00000
   1    -1.1072436624342e-17
   2    -6.5645028549831e-17
   3    1.5444598312322e-16
   4    5.204801930702e-16
   5    -2.9010818326281e-16
   6    -3.2026611081733e-16
   7      0.89973048450148
   8      0.42404271761422
   9      0.10320989022582
  10    0.0046085644074298
  11    0.0021720150748358
  12    0.00052865767558474
  13    -0.0014302988718975
  14    -0.0006740994454435
  15    -0.00016407245512551
  16    -0.0013984044624633
  17    -0.00065906761948423
  18    -0.00016041378338658
  19    -3.7433602604763e-05
  20    -1.7642446101621e-05
  21    -4.2940837082349e-06
  22    2.0134653894426e-17
  23    8.0159805873599e-18
  24    3.7291925609949e-17
  25    -3.0316105191846e-17
  26    3.1581349415902e-17
  27    1.8123968194395e-17
  28    8.2795778604512e-18
  29    6.0985843702682e-17
  30    -1.3703465133329e-17
  31    3.2147894650556e-17
  32    -2.2653918866846e-17
  33    -6.0692328078547e-17
  34    -5.00067374618e-17
  35    2.053134259057e-17
  36    -2.199823089911e-17
  37    5.9406608972054e-05
  38    -8.2502515987822e-05
  39    3.6636929679941e-05
  40    -5.9532771334157e-05
  41    -9.6678991210074e-05
  42    0.00010776890596965
  43    2.1751809160546e-05
 Sym= A
 Ene=               4
 Spin= Alpha
 Occup=    1.00000
   1    -1.4031755929668e-17
   2    -3.493686334933e-17
   3    -2.1595171748263e-16
   4    -5.4331698006122e-16
   5    1.5718232235886e-16
   6    4.0390653233145e-16
   7     -0.34008411919438
   8      0.53302182786642
   9      0.77473219594455
  10    -0.001741965615536
  11    0.0027302236242993
  12    0.0039683030474369
  13    0.00054063071154046
  14    -0.00084734321248203
  15    -0.0012315894646974
  16    0.00052857512119819
  17    -0.00082844820257811
  18    -0.0012041261006307
  19    1.4149319145444e-05
  20    -2.2176560234316e-05
  21    -3.2233004933868e-05
  22    4.2231558574763e-17
  23    4.5094783108705e-17
  24    -8.8094899240016e-17
  25    -3.8485111396944e-17
  26    -9.1571558720496e-17
  27    2.5615339275705e-18
  28    -2.6478817021592e-17
  29    -1.1677852995271e-17
  30    5.2440774367359e-17
  31    5.6648807861143e-17
  32    -1.5500452913089e-17
  33    -5.2552191820214e-17
  34    5.0493023472486e-17
  35    3.9088321107139e-17
  36    4.4415749898131e-17
  37    2.2541434688735e-05
  38    6.9675365106306e-05
  39    9.0593654263683e-05
  40    -0.00011240690996484
  41    2.6561492297693e-05
  42    -8.2956817001428e-06
  43    -9.8370238694452e-05
 Sym= A
 Ene=               5
 Spin= Alpha
 Occup=    1.00000
   1    -8.2919528660283e-05
   2    -0.0027076254559326
   3       1.0023427760487
   4    0.0039310938443536
   5    -0.0090020727148238
   6    -0.0013934634911043
   7    -3.9328771301898e-17
   8    -1.0446067740363e-16
   9    5.1288417400182e-17
  10    4.0143856898951e-16
  11    2.8350054825974e-16
  12    -8.123625176758e-18
  13    -1.0810448796662e-16
  14    1.8808758465115e-16
  15    -5.6888523661693e-17
  16    -1.0892608183539e-16
  17    1.6853035113999e-16
  18    -6.0108701594321e-17
  19    -1.149181061696e-18
  20    5.9680758170789e-18
  21    3.1733210406644e-18
  22    0.00045466800633753
  23    0.0016055138797247
  24    -0.0042978052647153
  25    -0.0021702313937369
  26    -0.0018844234976696
  27    -0.00039403355033182
  28    -0.0013914027935306
  29    0.0037246506099528
  30    0.0018808096659733
  31    0.0016331170673538
  32    7.6772076569551e-05
  33    0.00027109590468701
  34    -0.0007256974985561
  35    -0.00036645017554328
  36    -0.00031819064248868
  37    7.2296221140871e-18
  38    -3.7007226658839e-18
  39    1.3751720638209e-18
  40    2.6409280886552e-18
  41    1.6316991670034e-18
  42    -3.7651088399194e-18
  43    -5.1837169526257e-19
 Sym= A
 Ene=               6
 Spin= Alpha
 Occup=    1.00000
   1    -5.6566483600736e-18
   2    -1.4219240556551e-17
   3    -1.7511558194651e-16
   4    -1.5695748914454e-16
   5    5.8795374631792e-16
   6    -1.9645478569132e-16
   7    0.0014021697385358
   8    -0.0037534726796444
   9    0.0031979289643688
  10     -0.27306200241737
  11      0.73096055188905
  12     -0.62277259492937
  13    -0.034856056784839
  14     0.093306290435099
  15    -0.079496219688356
  16    -0.029706014851238
  17     0.079520126630845
  18    -0.067750517428097
  19    -0.0028338744150359
  20    0.0075860075296715
  21    -0.006463218271053
  22    2.8268085334155e-17
  23    -4.5543709086738e-17
  24    3.2186934510037e-16
  25    -1.1205937988582e-16
  26    2.6981784915438e-17
  27    -2.5336400356721e-17
  28    1.3128562403089e-16
  29    1.0059756316306e-15
  30    9.0300085305066e-17
  31    -5.4785784172719e-17
  32    -1.1998361245828e-17
  33    6.5889037302683e-17
  34    -9.7646870505718e-16
  35    6.4966701637922e-16
  36    4.0493993008826e-16
  37    0.0013736690015822
  38    -0.00066158276569266
  39    0.0017709930318002
  40    0.0023274272707959
  41    0.0020209175164027
  42      0.00138497374175
  43    -0.00075348443979267
 Sym= A
 Ene=               7
 Spin= Alpha
 Occup=    1.00000
   1    5.6381515451359e-18
   2    1.3978937446489e-17
   3    -1.9301160838798e-16
   4    -5.1482960853041e-16
   5    -5.3520581162217e-16
   6    -1.5418012864361e-16
   7    -0.0041927836286071
   8    0.0010821650596737
   9    0.0031085341236042
  10      0.78554783048082
  11     -0.20275131992232
  12     -0.58240597490245
  13     0.086958181364428
  14    -0.022444064340465
  15    -0.064470885702463
  16     0.076065694467529
  17    -0.019632693714904
  18    -0.056395184638636
  19    0.0064217349182046
  20    -0.0016574614305337
  21    -0.0047610809176403
  22    8.6528238678547e-17
  23    2.7116170118743e-16
  24    1.8255504501199e-16
  25    -1.4880471825279e-16
  26    -1.5182478758063e-17
  27    -2.4690549442944e-17
  28    -1.9250939688529e-17
  29    1.4465795102781e-16
  30    2.5605046652974e-17
  31    2.2038473959515e-16
  32    -8.223285683467e-17
  33    -3.0274748809069e-16
  34    3.3330162272146e-16
  35    2.6866342799564e-17
  36    4.7097487081289e-17
  37    -0.00038601207349417
  38    -0.004043097382713
  39    -0.00031730724677988
  40    0.0029866626349515
  41    -0.0040486149425148
  42    0.0013190722928029
  43     0.002891692768353
 Sym= A
 Ene=               8
 Spin= Alpha
 Occup=    1.00000
   1    1.1663807499925e-18
   2    3.0855790626365e-18
   3    -3.8851286788471e-16
   4    -1.3324772711015e-16
   5    -6.4092441505027e-17
   6    -8.0400944836502e-17
   7    -0.0029510141844266
   8    -0.0034656757447079
   9    -0.0027738253524997
  10      0.55289349406868
  11      0.64931899748639
  12      0.51969590630025
  13     0.061203927841041
  14     0.071877990055301
  15     0.057529037851533
  16     0.053537449867527
  17     0.062874466148023
  18     0.050322881039564
  19    0.0045198208423995
  20    0.0053080847752755
  21    0.0042484355743014
  22    -1.7109952228632e-16
  23    -5.4312432825838e-16
  24    -2.5872635506071e-16
  25    -6.9104158659568e-17
  26    3.0873604880057e-16
  27    2.8364609824324e-16
  28    -1.1556035397332e-16
  29    1.7294772276984e-16
  30    -2.758506488763e-16
  31    1.2093799528067e-16
  32    3.293236875356e-17
  33    -7.5624025790042e-17
  34    -2.688302880685e-17
  35    -4.3577324366295e-17
  36    2.2181430180441e-16
  37    0.0031331108683142
  38    -0.00011010018065607
  39    0.0018041688354043
  40    -0.0029964462429235
  41    -0.003497681023572
  42    0.0031590863044877
  43    -0.002780967677929
 Sym= A
 Ene=               9
 Spin= Alpha
 Occup=    1.00000
   1    0.0055696924959671
   2     0.014067140178943
   3     0.081896210183994
   4      0.91498019555938
   5      0.10920464012948
   6     0.010872714541299
   7    4.6227585176118e-17
   8    4.8415454261068e-17
   9    8.735681637196e-17
  10    1.2956973128657e-15
  11    -1.7113447773737e-16
  12    -5.1583964426743e-16
  13    -2.7608140311763e-16
  14    -1.2686388439027e-15
  15    9.1493153912906e-16
  16    -3.7822627209637e-16
  17    -1.0107303834263e-15
  18    9.0623006901503e-16
  19    -1.9467836057884e-17
  20    -9.210729200952e-17
  21    -8.0540570986486e-18
  22    0.0011115172141688
  23    0.0039249656668007
  24    -0.010506753207854
  25    -0.0053055185739885
  26    -0.0046068100833499
  27    0.0010460839501198
  28    0.0036939091335673
  29    -0.0098882372318821
  30    -0.0049931910701264
  31    -0.0043356144456024
  32    0.00013745152884295
  33    0.00048536588076806
  34    -0.0012992774861884
  35    -0.00065608668052485
  36    -0.00056968356501683
  37    5.7544231457548e-17
  38    2.4114252941316e-16
  39    -1.8179413225939e-18
  40    1.0642598986726e-16
  41    7.9977253056572e-17
  42    -1.2458996049926e-16
  43    5.8105072275788e-17
 Sym= A
 Ene=              10
 Spin= Alpha
 Occup=    1.00000
   1    2.5039242187805e-15
   2    6.7089675348963e-15
   3    8.2765906432778e-14
   4    4.0649760455619e-13
   5    5.988830360856e-14
   6    1.2045038583373e-14
   7    1.7236866308217e-17
   8    4.6302420798314e-18
   9    -7.0952366561731e-17
  10    -1.0119380122712e-15
  11     1.33006655794e-15
  12    -3.0104556024272e-16
  13    9.2370420365793e-15
  14    -2.9929204020878e-15
  15    -7.6099228015867e-15
  16    4.2194769035276e-15
  17    -5.4556304803771e-16
  18    -7.664388698756e-15
  19    9.0644216456036e-15
  20    -1.4795624511041e-14
  21    -2.042419980171e-15
  22     -0.46122888489978
  23     -0.16005983787467
  24      -0.5135479073062
  25      0.62973121757512
  26      0.19835357251368
  27     0.054690245351765
  28     0.018979105799571
  29     0.060893976873473
  30    -0.074670420527389
  31    -0.023519787902117
  32    0.0019019170750978
  33    0.00066002054219992
  34    0.0021176590750399
  35    -0.0025967509725297
  36    -0.00081792805875545
  37    -2.5895791918699e-17
  38    -8.8188888506944e-17
  39    5.8110416476812e-17
  40    -5.8393716386154e-17
  41    -1.2941582314546e-16
  42    1.1189196539227e-16
  43    1.0634283758713e-16
 Sym= A
 Ene=              11
 Spin= Alpha
 Occup=    0.00000
   1    -0.00068727531362516
   2    -0.001705141551768
   3    -0.0042610892404248
   4    -0.012089642937583
   5    -0.0061452114327606
   6     0.037704321547125
   7    -1.5682263809751e-16
   8    9.0163700984662e-17
   9    -1.7866705473461e-17
  10    -8.3500520627714e-16
  11    -4.7135193969606e-16
  12    -9.3898665834915e-17
  13    -3.7549567303179e-16
  14    -6.2403282267261e-16
  15    2.7573852672632e-16
  16    3.3029074984133e-15
  17    5.3060116384805e-16
  18    1.4184743372689e-15
  19    9.7916856612736e-15
  20    4.5622285040054e-15
  21    2.4368465036127e-16
  22    -0.072107022123037
  23     -0.25462276482053
  24      0.68160049750593
  25      0.34418283438569
  26      0.29885579136306
  27    -0.010789238907278
  28    -0.038098728251352
  29      0.10198660810537
  30     0.051499434016764
  31      0.04471723331379
  32    -0.027613573775714
  33    -0.097508457489101
  34      0.26102070324488
  35      0.13180572168718
  36       0.1144476113439
  37     2.20895296038e-16
  38    1.6522347054627e-15
  39    7.1378257734808e-16
  40    -1.1686738358423e-15
  41    -2.3598817024566e-16
  42    1.5012184023563e-15
  43    -5.6597299917322e-16
 Sym= A
 Ene=              12
 Spin= Alpha
 Occup=    0.00000
   1    5.4113022697256e-14
   2    1.3670860479916e-13
   3    7.1916236619115e-13
   4    1.7830210438292e-12
   5    -8.3188126430444e-14
   6    -2.0796555450415e-12
   7    1.2337457346757e-15
   8    -2.8979034552206e-15
   9    -3.7599820110593e-15
  10    2.4204546241275e-14
  11    -5.4490779278138e-14
  12    -7.1486756867224e-14
  13    -6.6442168245546e-14
  14    2.5664491135057e-13
  15    3.2764976011487e-13
  16    -1.3660735475928e-13
  17    2.3543432359669e-13
  18    3.1925570317425e-13
  19    -2.4480709032836e-13
  20    5.1806436308735e-13
  21    6.8602500690328e-13
  22       0.6829943957438
  23      0.20144049262098
  24      -0.1162031917418
  25      0.41935717077866
  26      0.11848069152266
  27      0.10566143472369
  28     0.031163493572444
  29    -0.017977008355311
  30     0.064875906160093
  31     0.018329344913157
  32      0.29004394192164
  33     0.085544764212721
  34    -0.049347450003535
  35      0.17808639081634
  36     0.050314624870863
  37    8.8371657811724e-15
  38    -2.5335291445248e-14
  39    -1.7225956536792e-15
  40    -3.8376695149685e-14
  41    2.2201227580483e-14
  42    3.339930129265e-14
  43    3.6252041658311e-14
 Sym= A
 Ene=              13
 Spin= Alpha
 Occup=    0.00000
   1    -9.2168733436508e-16
   2    -2.3283778701679e-15
   3    -1.2331194844336e-14
   4    -2.9126376922219e-14
   5    8.9422807318963e-16
   6    3.6324367575504e-14
   7    -3.4424678994483e-18
   8    -4.4479878890441e-17
   9    3.6212447085831e-17
  10    6.4312446401537e-17
  11    -4.8470938085675e-16
  12    5.7914128097629e-16
  13    -3.1946294045906e-15
  14    2.6786067500496e-14
  15    1.7327993914419e-14
  16    -1.1112233181596e-14
  17    1.6636685051609e-14
  18    3.3065710798716e-14
  19    -4.6901205498889e-15
  20    -3.8917481768456e-15
  21    -6.4055298609377e-15
  22      0.20040652129465
  23      -0.4542055071985
  24     -0.22585295839443
  25     -0.32708697695856
  26      0.55317270679632
  27     0.031003534875162
  28    -0.070267056141421
  29    -0.034940180723676
  30    -0.050601409733754
  31     0.085577600950074
  32      0.08510567258736
  33     -0.19288526607465
  34    -0.095911888524509
  35     -0.13890245182042
  36      0.23491319027313
  37    5.417139605694e-16
  38    1.5903707153343e-15
  39    3.1100271661348e-16
  40    -1.2093231079612e-15
  41    -6.5073280981142e-16
  42    8.7002929385993e-16
  43    -8.6418944730352e-17
 Sym= A
 Ene=              14
 Spin= Alpha
 Occup=    0.00000
   1    1.2650893615517e-14
   2    3.1959729076913e-14
   3    1.6824234990317e-13
   4    4.1505897551751e-13
   5    -1.8221180005459e-14
   6    -4.8787174730601e-13
   7    1.6525660668456e-16
   8    -3.655700162653e-16
   9    -4.7653503064148e-16
  10    3.3949834280413e-15
  11    -7.4783873788425e-15
  12    -9.982581053499e-15
  13    -1.686360235973e-14
  14    4.4966436827911e-14
  15    5.4492056229043e-14
  16    -2.1074161097624e-14
  17    2.0852073351207e-14
  18    2.8674305629513e-14
  19    -3.3759616956737e-14
  20    6.5598795761813e-14
  21    9.1175817718413e-14
  22     -0.17841491026752
  23      0.56793930162254
  24      0.03663898539623
  25      -0.1082392193894
  26      0.48192553785793
  27    -0.030146033185181
  28     0.095962366644181
  29    0.0061907385877645
  30    -0.018288735480451
  31     0.081428974939752
  32     -0.10333343071048
  33      0.32893616561517
  34     0.021220379244465
  35    -0.062689434757202
  36      0.27911915601209
  37    7.7775811833446e-16
  38    -4.5869971816046e-15
  39    9.0740218161481e-17
  40    -5.6471733128368e-15
  41    3.7572498634648e-15
  42    4.7667524044201e-15
  43    6.1490924358533e-15
 Sym= A
 Ene=              15
 Spin= Alpha
 Occup=    0.00000
   1    -2.8812786231965e-16
   2    -7.2788071005952e-16
   3    -3.8255860138874e-15
   4    -9.5910382091034e-15
   5    4.1951559710414e-16
   6    1.1048794388816e-14
   7    0.0007302878351684
   8    -0.001954909853113
   9    0.0016655676957172
  10     0.013935910868254
  11    -0.037305084593224
  12     0.031783636307209
  13    0.0044681979583096
  14    -0.011960933470807
  15     0.010190620491606
  16     -0.12689118413068
  17      0.33967541863175
  18     -0.28940076361859
  19     -0.16543586690626
  20      0.44285580383181
  21     -0.37730963376742
  22    -1.6334866280758e-14
  23    -1.6032724132186e-14
  24    -4.4330268530271e-15
  25    -7.6023330443773e-15
  26    1.5310812320875e-15
  27    1.2084874934863e-15
  28    -2.6474341611978e-15
  29    1.1792531174891e-15
  30    -3.5197763137432e-15
  31    -5.7144412594971e-16
  32    -7.36455306577e-15
  33    2.1548843894609e-15
  34    3.7608451620635e-15
  35    -1.1218051685913e-14
  36    4.9624008054054e-15
  37    0.0019715511307256
  38    -0.00094953314682409
  39    0.0025418083325166
  40    0.0033404276154732
  41     0.002900511120186
  42    0.0019877761989376
  43    -0.0010814345359321
 Sym= A
 Ene=              16
 Spin= Alpha
 Occup=    0.00000
   1    3.4343700273344e-18
   2    8.7058986468308e-18
   3    5.141823621007e-17
   4    4.7853233610565e-17
   5    -4.1820437606784e-17
   6    -1.3268855560445e-16
   7    0.00093561712034615
   8    -0.0015841006705118
   9    -0.0022695227700209
  10     0.018564795019343
  11    -0.031432199773203
  12    -0.045032550282522
  13    -0.0055487255144939
  14    0.0093945906079398
  15     0.013459521662759
  16     -0.14736019017957
  17      0.24949669153802
  18        0.357451033905
  19     -0.20524236560163
  20      0.34749745584545
  21      0.49785559923666
  22    -5.6433235839065e-13
  23    -2.1627456772035e-13
  24    4.3117058473199e-14
  25    -2.5058573303964e-13
  26    -1.299034797822e-13
  27    -6.568809536112e-14
  28    -7.9842339110205e-14
  29    1.2494903023366e-14
  30    -4.2880615823906e-14
  31    -6.2859364526071e-14
  32    -9.2597037960228e-14
  33    -3.8126464280996e-14
  34    2.7765780874333e-13
  35    -4.78574599995e-13
  36    -1.3666076174081e-13
  37    0.0023350913616037
  38    0.0020381241948677
  39    -0.0022155132964878
  40    -0.0013904645623876
  41    0.00091162114005732
  42    0.0015110868330909
  43    -0.0018122235658388
 Sym= A
 Ene=              17
 Spin= Alpha
 Occup=    0.00000
   1    5.706374974273e-15
   2    1.4416399048337e-14
   3    7.5879059961874e-14
   4    1.8763756377821e-13
   5    -8.5082140348477e-15
   6    -2.1965805590245e-13
   7    -0.002649826147892
   8    -0.0012043788290528
   9    -0.00025175574654682
  10    -0.052578643766493
  11     -0.02389764530885
  12    -0.0049954128969467
  13     0.015714930430471
  14    0.0071426306714627
  15     0.001493050419739
  16      0.41734901660591
  17      0.18969030112835
  18     0.039651662932535