[Molden Format]
made by pyscf v[1.6.1-1]
[Atoms] (AU)
H   1   1     0.00000000000000     0.00000000000000     2.83458918684759
H   2   1     0.00000000000000     0.00000000000000     5.66917837369519
H   3   1     0.00000000000000     0.00000000000000     8.50376756054278
H   4   1     0.00000000000000     0.00000000000000    11.33835674739037
H   5   1     0.00000000000000     0.00000000000000    14.17294593423796
H   6   1     0.00000000000000     0.00000000000000    17.00753512108556
[GTO]
1 0
 s    3 1.00
            3.42525091    0.15432897070298
            0.62391373    0.53532814243847
             0.1688554    0.44463454202535

2 0
 s    3 1.00
            3.42525091    0.15432897070298
            0.62391373    0.53532814243847
             0.1688554    0.44463454202535

3 0
 s    3 1.00
            3.42525091    0.15432897070298
            0.62391373    0.53532814243847
             0.1688554    0.44463454202535

4 0
 s    3 1.00
            3.42525091    0.15432897070298
            0.62391373    0.53532814243847
             0.1688554    0.44463454202535

5 0
 s    3 1.00
            3.42525091    0.15432897070298
            0.62391373    0.53532814243847
             0.1688554    0.44463454202535

6 0
 s    3 1.00
            3.42525091    0.15432897070298
            0.62391373    0.53532814243847
             0.1688554    0.44463454202535

[5d]
[9g]


[MO]
 Sym= A
 Ene=               0
 Spin= Alpha
 Occup=    1.00000
   1      0.21312379163849
   2      0.32958766274367
   3      0.42688091441624
   4      0.42688091441624
   5      0.32958766274367
   6      0.21312379163849
 Sym= A
 Ene=               1
 Spin= Alpha
 Occup=    1.00000
   1      0.39773752267652
   2      0.44936164649841
   3      0.14369629940638
   4     -0.14369629940638
   5     -0.44936164649841
   6     -0.39773752267652
 Sym= A
 Ene=               2
 Spin= Alpha
 Occup=    1.00000
   1      0.44801695516725
   2      0.27104691896825
   3     -0.43257484188707
   4     -0.43257484188707
   5      0.27104691896825
   6      0.44801695516725
 Sym= A
 Ene=               3
 Spin= Alpha
 Occup=    0.00000
   1      -0.5192975561399
   2      0.27482838263775
   3       0.4834206576541
   4      -0.4834206576541
   5     -0.27482838263775
   6       0.5192975561399
 Sym= A
 Ene=               4
 Spin= Alpha
 Occup=    0.00000
   1     -0.53893242113359
   2      0.62323482825762
   3      -0.2345116167691
   4      -0.2345116167691
   5      0.62323482825762
   6     -0.53893242113359
 Sym= A
 Ene=               5
 Spin= Alpha
 Occup=    0.00000
   1      0.33019970087336
   2     -0.55135498341482
   3      0.69018978284744
   4     -0.69018978284744
   5      0.55135498341482
   6     -0.33019970087336
