[Molden Format]
made by pyscf v[1.6.1-1]
[Atoms] (AU)
H   1   1     0.00000000000000     0.00000000000000    -1.88972612456506
Be   2   4     0.00000000000000     0.00000000000000     0.00000000000000
H   3   1     0.00000000000000     0.00000000000000     1.88972612456506
[GTO]
1 0
 s    3 1.00
            3.42525091    0.15432897070298
            0.62391373    0.53532814243847
             0.1688554    0.44463454202535

2 0
 s    3 1.00
             30.167871    0.15432897000252
             5.4951153    0.53532814000875
             1.4871927    0.44463454000726
 s    3 1.00
             1.3148331  -0.099967231525352
             0.3055389    0.39951283609597
             0.0993707    0.70011548068272
 p    3 1.00
             1.3148331    0.15591627764492
             0.3055389     0.6076837497961
             0.0993707    0.39195740921855

3 0
 s    3 1.00
            3.42525091    0.15432897070298
            0.62391373    0.53532814243847
             0.1688554    0.44463454202535

[5d]
[9g]


[MO]
 Sym= A
 Ene=               0
 Spin= Alpha
 Occup=    1.00000
   1    0.0059653078112376
   2      0.99141737437557
   3     0.024459467100682
   4    -6.9606092982819e-18
   5    1.4380198641203e-18
   6    1.7008977188933e-16
   7    0.0059653078112373
 Sym= A
 Ene=               1
 Spin= Alpha
 Occup=    1.00000
   1      0.41033929448229
   2     -0.27259472010341
   3      0.46848232287183
   4    4.5202096937773e-17
   5    -5.0397759751393e-18
   6    -3.5295360806935e-15
   7      0.41033929448229
 Sym= A
 Ene=               2
 Spin= Alpha
 Occup=    1.00000
   1     -0.38859598742155
   2    -2.3633896340254e-15
   3    4.1223042803814e-15
   4    -4.1394935546702e-17
   5    -1.5067129737791e-18
   6      0.51354761373422
   7      0.38859598742156
 Sym= A
 Ene=               3
 Spin= Alpha
 Occup=    0.00000
   1    -1.4982120835612e-16
   2    8.1092533584487e-18
   3    2.6445660501461e-17
   4      0.98111926472106
   5      0.19340369281172
   6    -9.6949623840038e-17
   7    1.1013137387257e-16
 Sym= A
 Ene=               4
 Spin= Alpha
 Occup=    0.00000
   1    1.9982048576636e-17
   2    -2.7691557654177e-17
   3    7.2354073840021e-18
   4     -0.19340369281172
   5      0.98111926472106
   6    3.8395914853015e-17
   7    1.1964134646892e-16
 Sym= A
 Ene=               5
 Spin= Alpha
 Occup=    0.00000
   1      -1.0413865176581
   2     -0.12423677305051
   3       1.6342853468185
   4    -1.1562180991401e-17
   5    -9.9152205521604e-18
   6    -3.714590427162e-15
   7      -1.0413865176581
 Sym= A
 Ene=               6
 Spin= Alpha
 Occup=    0.00000
   1       1.5898015237964
   2    -1.3010535395988e-16
   3    3.4470992689396e-15
   4    -1.7465639887968e-17
   5    1.9265247876531e-18
   6       2.1105883404254
   7      -1.5898015237964
