[Molden Format]
made by pyscf v[1.6.1-1]
[Atoms] (AU)
H   1   1     0.00000000000000     0.00000000000000     0.00000000000000
H   2   1     0.00000000000000     0.00000000000000     1.88972612456506
H   3   1     0.00000000000000     3.77945224913012     0.00000000000000
H   4   1     0.00000000000000     3.77945224913012     1.88972612456506
[GTO]
1 0
 s    3 1.00
            3.42525091    0.15432897070298
            0.62391373    0.53532814243847
             0.1688554    0.44463454202535

2 0
 s    3 1.00
            3.42525091    0.15432897070298
            0.62391373    0.53532814243847
             0.1688554    0.44463454202535

3 0
 s    3 1.00
            3.42525091    0.15432897070298
            0.62391373    0.53532814243847
             0.1688554    0.44463454202535

4 0
 s    3 1.00
            3.42525091    0.15432897070298
            0.62391373    0.53532814243847
             0.1688554    0.44463454202535

[5d]
[9g]


[MO]
 Sym= A
 Ene=               0
 Spin= Alpha
 Occup=    1.00000
   1      0.38397940440075
   2      0.38397940440075
   3      0.38397940440075
   4      0.38397940440075
 Sym= A
 Ene=               1
 Spin= Alpha
 Occup=    1.00000
   1      0.43897386561498
   2      0.43897386561498
   3     -0.43897386561498
   4     -0.43897386561498
 Sym= A
 Ene=               2
 Spin= Alpha
 Occup=    0.00000
   1      0.67863775186513
   2     -0.67863775186513
   3      0.67863775186514
   4     -0.67863775186514
 Sym= A
 Ene=               3
 Spin= Alpha
 Occup=    0.00000
   1      0.73386677798692
   2     -0.73386677798692
   3     -0.73386677798692
   4      0.73386677798692
